formmaldehido                                                           
SP        RB3LYP                                                      6-31G(d,p)          
Number of atoms                            I               10
Info1-9                                    I   N=           9
          17          16           0           0           0         110
           1          18        -502
Charge                                     I                0
Multiplicity                               I                1
Number of electrons                        I               32
Number of alpha electrons                  I               16
Number of beta electrons                   I               16
Number of basis functions                  I               90
Number of independent functions            I               90
Number of point charges in /Mol/           I                0
Number of translation vectors              I                0
Atomic numbers                             I   N=          10
           6           6           1           1           1           6
           1           1           1           8
Nuclear charges                            R   N=          10
  6.00000000E+00  6.00000000E+00  1.00000000E+00  1.00000000E+00  1.00000000E+00
  6.00000000E+00  1.00000000E+00  1.00000000E+00  1.00000000E+00  8.00000000E+00
Current cartesian coordinates              R   N=          30
  2.42102760E+00 -1.16705449E+00  8.72270348E-04 -8.34630262E-06  3.24365227E-01
 -2.14563064E-03  4.03384590E+00  1.21967092E-01 -8.55196392E-02  2.47271231E+00
 -2.40813805E+00 -1.64887909E+00  2.54448132E+00 -2.28080050E+00  1.73533649E+00
 -2.42104927E+00 -1.16703045E+00 -1.84726321E-07 -2.52613536E+00 -2.31731942E+00
 -1.71173330E+00 -4.03461266E+00  1.23375020E-01  3.92623291E-02 -2.49048034E+00
 -2.37272888E+00  1.67505441E+00  4.61192067E-05  2.64899538E+00  5.15008632E-04
Number of symbols in /Mol/                 I                0
Force Field                                I                0
Atom Types                                 C   N=          10
                                                            
                                                            
Int Atom Types                             I   N=          10
           0           0           0           0           0           0
           0           0           0           0
MM charges                                 R   N=          10
  0.00000000E+00  0.00000000E+00  0.00000000E+00  0.00000000E+00  0.00000000E+00
  0.00000000E+00  0.00000000E+00  0.00000000E+00  0.00000000E+00  0.00000000E+00
Integer atomic weights                     I   N=          10
          12          12           1           1           1          12
           1           1           1          16
Real atomic weights                        R   N=          10
  1.20000000E+01  1.20000000E+01  1.00782504E+00  1.00782504E+00  1.00782504E+00
  1.20000000E+01  1.00782504E+00  1.00782504E+00  1.00782504E+00  1.59949146E+01
Atom fragment info                         I   N=          10
           0           0           0           0           0           0
           0           0           0           0
Atom residue num                           I   N=          10
           0           0           0           0           0           0
           0           0           0           0
Nuclear spins                              I   N=          10
           0           0           1           1           1           0
           1           1           1           0
Nuclear ZEff                               R   N=          10
 -3.60000000E+00 -3.60000000E+00 -1.00000000E+00 -1.00000000E+00 -1.00000000E+00
 -3.60000000E+00 -1.00000000E+00 -1.00000000E+00 -1.00000000E+00 -5.60000000E+00
Nuclear QMom                               R   N=          10
  0.00000000E+00  0.00000000E+00  0.00000000E+00  0.00000000E+00  0.00000000E+00
  0.00000000E+00  0.00000000E+00  0.00000000E+00  0.00000000E+00  0.00000000E+00
Nuclear GFac                               R   N=          10
  0.00000000E+00  0.00000000E+00  2.79284600E+00  2.79284600E+00  2.79284600E+00
  0.00000000E+00  2.79284600E+00  2.79284600E+00  2.79284600E+00  0.00000000E+00
MicOpt                                     I   N=          10
          -1          -1          -1          -1          -1          -1
          -1          -1          -1          -1
Number of residues                         I                0
Number of secondary structures             I                0
Number of contracted shells                I               34
Number of primitive shells                 I               74
Pure/Cartesian d shells                    I                1
Pure/Cartesian f shells                    I                0
Highest angular momentum                   I                2
Largest degree of contraction              I                6
Shell types                                I   N=          34
           0          -1          -1           2           0          -1
          -1           2           0           0           1           0
           0           1           0           0           1           0
          -1          -1           2           0           0           1
           0           0           1           0           0           1
           0          -1          -1           2
Number of primitives per shell             I   N=          34
           6           3           1           1           6           3
           1           1           3           1           1           3
           1           1           3           1           1           6
           3           1           1           3           1           1
           3           1           1           3           1           1
           6           3           1           1
Shell to atom map                          I   N=          34
           1           1           1           1           2           2
           2           2           3           3           3           4
           4           4           5           5           5           6
           6           6           6           7           7           7
           8           8           8           9           9           9
          10          10          10          10
Primitive exponents                        R   N=          74
  3.04752488E+03  4.57369518E+02  1.03948685E+02  2.92101553E+01  9.28666296E+00
  3.16392696E+00  7.86827235E+00  1.88128854E+00  5.44249258E-01  1.68714478E-01
  8.00000000E-01  3.04752488E+03  4.57369518E+02  1.03948685E+02  2.92101553E+01
  9.28666296E+00  3.16392696E+00  7.86827235E+00  1.88128854E+00  5.44249258E-01
  1.68714478E-01  8.00000000E-01  1.87311370E+01  2.82539436E+00  6.40121692E-01
  1.61277759E-01  1.10000000E+00  1.87311370E+01  2.82539436E+00  6.40121692E-01
  1.61277759E-01  1.10000000E+00  1.87311370E+01  2.82539436E+00  6.40121692E-01
  1.61277759E-01  1.10000000E+00  3.04752488E+03  4.57369518E+02  1.03948685E+02
  2.92101553E+01  9.28666296E+00  3.16392696E+00  7.86827235E+00  1.88128854E+00
  5.44249258E-01  1.68714478E-01  8.00000000E-01  1.87311370E+01  2.82539436E+00
  6.40121692E-01  1.61277759E-01  1.10000000E+00  1.87311370E+01  2.82539436E+00
  6.40121692E-01  1.61277759E-01  1.10000000E+00  1.87311370E+01  2.82539436E+00
  6.40121692E-01  1.61277759E-01  1.10000000E+00  5.48467166E+03  8.25234946E+02
  1.88046958E+02  5.29645000E+01  1.68975704E+01  5.79963534E+00  1.55396162E+01
  3.59993359E+00  1.01376175E+00  2.70005823E-01  8.00000000E-01
Contraction coefficients                   R   N=          74
  1.83473713E-03  1.40373228E-02  6.88426223E-02  2.32184443E-01  4.67941348E-01
  3.62311985E-01 -1.19332420E-01 -1.60854152E-01  1.14345644E+00  1.00000000E+00
  1.00000000E+00  1.83473713E-03  1.40373228E-02  6.88426223E-02  2.32184443E-01
  4.67941348E-01  3.62311985E-01 -1.19332420E-01 -1.60854152E-01  1.14345644E+00
  1.00000000E+00  1.00000000E+00  3.34946043E-02  2.34726953E-01  8.13757326E-01
  1.00000000E+00  1.00000000E+00  3.34946043E-02  2.34726953E-01  8.13757326E-01
  1.00000000E+00  1.00000000E+00  3.34946043E-02  2.34726953E-01  8.13757326E-01
  1.00000000E+00  1.00000000E+00  1.83473713E-03  1.40373228E-02  6.88426223E-02
  2.32184443E-01  4.67941348E-01  3.62311985E-01 -1.19332420E-01 -1.60854152E-01
  1.14345644E+00  1.00000000E+00  1.00000000E+00  3.34946043E-02  2.34726953E-01
  8.13757326E-01  1.00000000E+00  1.00000000E+00  3.34946043E-02  2.34726953E-01
  8.13757326E-01  1.00000000E+00  1.00000000E+00  3.34946043E-02  2.34726953E-01
  8.13757326E-01  1.00000000E+00  1.00000000E+00  1.83107443E-03  1.39501722E-02
  6.84450781E-02  2.32714336E-01  4.70192898E-01  3.58520853E-01 -1.10777550E-01
 -1.48026263E-01  1.13076702E+00  1.00000000E+00  1.00000000E+00
P(S=P) Contraction coefficients            R   N=          74
  0.00000000E+00  0.00000000E+00  0.00000000E+00  0.00000000E+00  0.00000000E+00
  0.00000000E+00  6.89990666E-02  3.16423961E-01  7.44308291E-01  1.00000000E+00
  0.00000000E+00  0.00000000E+00  0.00000000E+00  0.00000000E+00  0.00000000E+00
  0.00000000E+00  0.00000000E+00  6.89990666E-02  3.16423961E-01  7.44308291E-01
  1.00000000E+00  0.00000000E+00  0.00000000E+00  0.00000000E+00  0.00000000E+00
  0.00000000E+00  0.00000000E+00  0.00000000E+00  0.00000000E+00  0.00000000E+00
  0.00000000E+00  0.00000000E+00  0.00000000E+00  0.00000000E+00  0.00000000E+00
  0.00000000E+00  0.00000000E+00  0.00000000E+00  0.00000000E+00  0.00000000E+00
  0.00000000E+00  0.00000000E+00  0.00000000E+00  6.89990666E-02  3.16423961E-01
  7.44308291E-01  1.00000000E+00  0.00000000E+00  0.00000000E+00  0.00000000E+00
  0.00000000E+00  0.00000000E+00  0.00000000E+00  0.00000000E+00  0.00000000E+00
  0.00000000E+00  0.00000000E+00  0.00000000E+00  0.00000000E+00  0.00000000E+00
  0.00000000E+00  0.00000000E+00  0.00000000E+00  0.00000000E+00  0.00000000E+00
  0.00000000E+00  0.00000000E+00  0.00000000E+00  0.00000000E+00  7.08742682E-02
  3.39752839E-01  7.27158577E-01  1.00000000E+00  0.00000000E+00
Coordinates of each shell                  R   N=         102
  2.42102760E+00 -1.16705449E+00  8.72270348E-04  2.42102760E+00 -1.16705449E+00
  8.72270348E-04  2.42102760E+00 -1.16705449E+00  8.72270348E-04  2.42102760E+00
 -1.16705449E+00  8.72270348E-04 -8.34630262E-06  3.24365227E-01 -2.14563064E-03
 -8.34630262E-06  3.24365227E-01 -2.14563064E-03 -8.34630262E-06  3.24365227E-01
 -2.14563064E-03 -8.34630262E-06  3.24365227E-01 -2.14563064E-03  4.03384590E+00
  1.21967092E-01 -8.55196392E-02  4.03384590E+00  1.21967092E-01 -8.55196392E-02
  4.03384590E+00  1.21967092E-01 -8.55196392E-02  2.47271231E+00 -2.40813805E+00
 -1.64887909E+00  2.47271231E+00 -2.40813805E+00 -1.64887909E+00  2.47271231E+00
 -2.40813805E+00 -1.64887909E+00  2.54448132E+00 -2.28080050E+00  1.73533649E+00
  2.54448132E+00 -2.28080050E+00  1.73533649E+00  2.54448132E+00 -2.28080050E+00
  1.73533649E+00 -2.42104927E+00 -1.16703045E+00 -1.84726321E-07 -2.42104927E+00
 -1.16703045E+00 -1.84726321E-07 -2.42104927E+00 -1.16703045E+00 -1.84726321E-07
 -2.42104927E+00 -1.16703045E+00 -1.84726321E-07 -2.52613536E+00 -2.31731942E+00
 -1.71173330E+00 -2.52613536E+00 -2.31731942E+00 -1.71173330E+00 -2.52613536E+00
 -2.31731942E+00 -1.71173330E+00 -4.03461266E+00  1.23375020E-01  3.92623291E-02
 -4.03461266E+00  1.23375020E-01  3.92623291E-02 -4.03461266E+00  1.23375020E-01
  3.92623291E-02 -2.49048034E+00 -2.37272888E+00  1.67505441E+00 -2.49048034E+00
 -2.37272888E+00  1.67505441E+00 -2.49048034E+00 -2.37272888E+00  1.67505441E+00
  4.61192067E-05  2.64899538E+00  5.15008632E-04  4.61192067E-05  2.64899538E+00
  5.15008632E-04  4.61192067E-05  2.64899538E+00  5.15008632E-04  4.61192067E-05
  2.64899538E+00  5.15008632E-04
Constraint Structure                       R   N=          30
  2.42102760E+00 -1.16705449E+00  8.72270348E-04 -8.34630262E-06  3.24365227E-01
 -2.14563064E-03  4.03384590E+00  1.21967092E-01 -8.55196392E-02  2.47271231E+00
 -2.40813805E+00 -1.64887909E+00  2.54448132E+00 -2.28080050E+00  1.73533649E+00
 -2.42104927E+00 -1.16703045E+00 -1.84726321E-07 -2.52613536E+00 -2.31731942E+00
 -1.71173330E+00 -4.03461266E+00  1.23375020E-01  3.92623291E-02 -2.49048034E+00
 -2.37272888E+00  1.67505441E+00  4.61192067E-05  2.64899538E+00  5.15008632E-04
Num ILSW                                   I              100
ILSW                                       I   N=         100
           0           1           0           0           2           0
           0           0           3           0         402          -1
           0           0           0           0           0           0
           0           0           1           0           0           0
           1           0           0           0           0           0
           0           0      100000           0          -1           0
           0           0           0           0           0           0
           0           0           0           1           0           0
           0           0           1           0           0           0
           0           0           4          40           0           0
           0           0           5           0           0           0
           0           0           0           0           0           0
           0           0           0           0           0           0
           0           0           0           0           0           0
           0           0           0           0           0           0
           0           0           0           0           0           0
           0           0           0           0
Num RLSW                                   I               40
RLSW                                       R   N=          40
  8.00000000E-01  7.20000000E-01  1.00000000E+00  8.10000000E-01  2.00000000E-01
  0.00000000E+00  0.00000000E+00  1.00000000E+00  0.00000000E+00  0.00000000E+00
  0.00000000E+00  0.00000000E+00  1.00000000E+00  0.00000000E+00  0.00000000E+00
  0.00000000E+00  0.00000000E+00  1.00000000E+00  0.00000000E+00  0.00000000E+00
  0.00000000E+00  0.00000000E+00  1.00000000E+00  0.00000000E+00  0.00000000E+00
  0.00000000E+00  0.00000000E+00  1.00000000E+00  0.00000000E+00  0.00000000E+00
  0.00000000E+00  0.00000000E+00  1.00000000E+00  0.00000000E+00  0.00000000E+00
  0.00000000E+00  0.00000000E+00  0.00000000E+00  1.00000000E+00  1.00000000E+00
MxBond                                     I                4
NBond                                      I   N=          10
           4           3           1           1           1           4
           1           1           1           1
IBond                                      I   N=          40
           2           3           4           5           1           6
          10           0           1           0           0           0
           1           0           0           0           1           0
           0           0           2           7           8           9
           6           0           0           0           6           0
           0           0           6           0           0           0
           2           0           0           0
RBond                                      R   N=          40
  1.00000000E+00  1.00000000E+00  1.00000000E+00  1.00000000E+00  1.00000000E+00
  1.00000000E+00  2.00000000E+00  0.00000000E+00  1.00000000E+00  0.00000000E+00
  0.00000000E+00  0.00000000E+00  1.00000000E+00  0.00000000E+00  0.00000000E+00
  0.00000000E+00  1.00000000E+00  0.00000000E+00  0.00000000E+00  0.00000000E+00
  1.00000000E+00  1.00000000E+00  1.00000000E+00  1.00000000E+00  1.00000000E+00
  0.00000000E+00  0.00000000E+00  0.00000000E+00  1.00000000E+00  0.00000000E+00
  0.00000000E+00  0.00000000E+00  1.00000000E+00  0.00000000E+00  0.00000000E+00
  0.00000000E+00  2.00000000E+00  0.00000000E+00  0.00000000E+00  0.00000000E+00
Virial Ratio                               R      2.009349629319296E+00
SCF Energy                                 R     -1.931630988238914E+02
Total Energy                               R     -1.931630988238914E+02
RMS Density                                R      3.670967637514261E-09
External E-field                           R   N=          35
  0.00000000E+00  0.00000000E+00  0.00000000E+00  0.00000000E+00  0.00000000E+00
  0.00000000E+00  0.00000000E+00  0.00000000E+00  0.00000000E+00  0.00000000E+00
  0.00000000E+00  0.00000000E+00  0.00000000E+00  0.00000000E+00  0.00000000E+00
  0.00000000E+00  0.00000000E+00  0.00000000E+00  0.00000000E+00  0.00000000E+00
  0.00000000E+00  0.00000000E+00  0.00000000E+00  0.00000000E+00  0.00000000E+00
  0.00000000E+00  0.00000000E+00  0.00000000E+00  0.00000000E+00  0.00000000E+00
  0.00000000E+00  0.00000000E+00  0.00000000E+00  0.00000000E+00  0.00000000E+00
IOpCl                                      I                0
IROHF                                      I                0
Alpha Orbital Energies                     R   N=          90
 -1.91332421E+01 -1.02755753E+01 -1.01905084E+01 -1.01904962E+01 -1.02628774E+00
 -7.72061239E-01 -7.11976561E-01 -5.30197962E-01 -4.63865901E-01 -4.53724985E-01
 -4.46717402E-01 -4.10296398E-01 -3.86929596E-01 -3.76043769E-01 -3.42218227E-01
 -2.42592654E-01 -1.26408864E-02  8.64459453E-02  1.34248336E-01  1.48312353E-01
  1.59926078E-01  1.74644794E-01  1.80313777E-01  2.03777637E-01  2.89665325E-01
  3.23548259E-01  4.88971685E-01  5.40494887E-01  5.57236799E-01  5.60093272E-01
  5.73818701E-01  6.74253927E-01  6.85866315E-01  7.10961970E-01  7.34234044E-01
  7.80724893E-01  8.22345325E-01  8.64990522E-01  8.73602513E-01  8.76970070E-01
  8.98938177E-01  9.10295725E-01  9.37686032E-01  1.00983029E+00  1.09836719E+00
  1.17519673E+00  1.28431709E+00  1.37427824E+00  1.40113030E+00  1.49042889E+00
  1.65567338E+00  1.71298419E+00  1.74493790E+00  1.74802943E+00  1.77287608E+00
  1.86622374E+00  1.94596469E+00  1.96957720E+00  2.01160413E+00  2.01207207E+00
  2.02433610E+00  2.05523210E+00  2.06647395E+00  2.07816680E+00  2.16539647E+00
  2.25653248E+00  2.32501407E+00  2.34115292E+00  2.36212311E+00  2.54332818E+00
  2.55533417E+00  2.63536799E+00  2.63756138E+00  2.68050508E+00  2.78151661E+00
  2.82772142E+00  2.87278375E+00  2.92172088E+00  3.00724417E+00  3.02804712E+00
  3.17337085E+00  3.25099913E+00  3.38853757E+00  3.40879144E+00  3.42445936E+00
  3.45989819E+00  3.97184663E+00  4.17555829E+00  4.48481624E+00  4.58558830E+00
Alpha MO coefficients                      R   N=        8100
  8.09220776E-06  8.07556812E-05 -3.97096126E-06 -8.33232597E-06  1.64320865E-06
 -7.24049641E-04  7.84761106E-04  4.48894041E-04 -1.44876941E-05 -2.67378649E-05
 -8.77436604E-06  2.06464684E-05  1.31625100E-05 -3.92457402E-07  9.18405787E-08
 -1.40781665E-05  4.22576349E-04 -1.68145394E-08  3.19205966E-05  1.94585284E-07
 -2.56441939E-03  7.80460166E-07 -4.06555298E-03 -1.02139851E-06 -2.79502498E-05
 -8.56502389E-04 -5.86415877E-05  9.67759529E-09  6.43196507E-07 -1.57931651E-06
  9.17084591E-06 -3.86749106E-04 -2.30884489E-05  5.35893414E-05 -3.08989530E-06
  2.13686771E-05  1.09904868E-04  1.25651683E-05 -4.19414141E-05  2.20458320E-05
  1.95164116E-05  1.12018200E-04  5.87120772E-06 -3.86283383E-05 -1.82237334E-05
  8.02900127E-06  8.04374756E-05  4.10679212E-06 -8.43253789E-06 -7.77822322E-07
 -7.21660266E-04 -7.85444501E-04  4.50390939E-04  5.94857021E-06 -2.68222369E-05
 -8.78941577E-06  2.06075652E-05 -1.32180835E-05 -5.57673121E-08 -1.74818732E-07
  2.03728052E-05  1.08666808E-04 -8.04497628E-06 -3.99206953E-05  1.91998880E-05
  8.97932015E-06 -3.88157396E-04  2.29379836E-05  5.36818848E-05  1.30655280E-06
  2.03251647E-05  1.13270171E-04 -1.03849867E-05 -4.09386807E-05 -2.11308702E-05
  9.92728554E-01  2.55235813E-02  1.23349196E-08 -1.08748449E-03 -8.22850661E-07
  1.46196113E-02 -2.59445338E-07 -1.83119929E-03 -3.65156570E-06 -8.19889030E-03
 -7.66997528E-03 -8.22586771E-03  5.59242758E-08 -2.91592040E-07  8.83350776E-07
  1.37528972E-03 -5.94582947E-05  1.79975668E-04 -1.76071238E-04  4.87930966E-06
  3.71191377E-03 -2.02458718E-03  5.40098571E-04 -4.65735996E-05 -3.23012463E-04
 -3.65658857E-04 -1.61671336E-04  2.02724370E-04 -7.54496457E-07  2.44022706E-06
  9.92926830E-01  4.86993257E-02  3.03850786E-08  6.49443119E-04  1.51724855E-06
 -1.05873680E-02  6.04620047E-07  4.79889323E-03  3.21128153E-07 -9.26052152E-03
 -8.20434394E-03 -9.43732825E-03  4.68091212E-08  3.05634172E-06  9.26260091E-07
 -5.85178411E-05  1.87817676E-04 -4.26016198E-06 -5.32839788E-05  6.44532114E-06
 -1.27099330E-04  1.87053013E-04 -5.86165927E-05  9.65823226E-05  3.60306586E-05
 -1.27111389E-04  2.68493986E-04 -5.89909023E-05  9.64753816E-05 -4.27467987E-05
  1.37538872E-03 -5.92417507E-05 -1.79883704E-04 -1.76263648E-04 -1.59557968E-06
  3.71094980E-03  2.02405449E-03  5.42459984E-04  1.98945923E-05 -3.22887687E-04
 -3.65688660E-04 -1.61594988E-04 -2.02628832E-04  1.11813105E-07 -7.63275695E-07
 -1.27951860E-04  2.51071250E-04  5.93253518E-05  9.69646413E-05  4.10798806E-05
 -5.83644325E-05  1.87529873E-04  4.28915109E-06 -5.34912705E-05 -2.83274548E-06
 -1.26230687E-04  2.06552042E-04  5.84177597E-05  9.63389230E-05 -3.77828025E-05
 -7.48198298E-05  5.71757753E-04 -3.14671852E-08  4.62051441E-05 -3.87398726E-07
 -3.82454397E-03  1.00164820E-07  2.16715969E-03  4.96907750E-06  3.79642317E-04
 -2.76553019E-04  5.63270379E-04 -1.76760643E-08  7.41647383E-07 -1.77408139E-06
  7.69574832E-01  3.92219550E-02 -1.22286769E-04 -1.86456626E-04  1.12330875E-05
 -1.55984019E-02  1.85710837E-03 -8.22670438E-04 -3.73591117E-05 -7.00288106E-03
 -6.97711946E-03 -6.81219663E-03  1.35541896E-04 -1.48389904E-06 -1.21306755E-06
 -2.29465182E-04 -3.83424669E-05 -2.81649093E-04  3.32538350E-06  2.01924011E-06
  5.74425664E-04  5.25347315E-03 -1.11283605E-04  4.40449895E-06 -4.86020360E-05
 -3.16835117E-05 -1.84410409E-05  2.03366959E-04  2.97690481E-07 -2.16752076E-06
 -2.59154462E-05  1.73958976E-03  1.22791415E-04  1.23157000E-04 -5.99713424E-06
  4.58244369E-07  2.24919425E-03 -9.06093657E-05 -8.64305810E-05 -1.48409031E-04
 -6.91818930E-06  2.30048858E-03 -8.78368274E-05 -7.53214619E-05  1.57405231E-04
 -6.27543449E-01 -3.20857857E-02 -1.25809691E-04  1.74313928E-04  4.67098931E-06
  1.33073684E-02  1.79514568E-03  6.93494350E-04 -3.19533502E-05  5.68689298E-03
  5.67021765E-03  5.51625109E-03  1.25841739E-04  1.18846917E-06 -4.29743045E-07
 -2.55541862E-05 -1.96251925E-03 -9.31412196E-05  6.48413052E-05  1.24671674E-04
  1.57421357E-05 -1.31069901E-03  1.14889579E-04 -1.04469079E-04 -1.90208936E-06
 -3.16991926E-05 -1.90961356E-03 -9.17096786E-05  7.01619218E-05 -1.23145080E-04
 -2.55670610E-06 -1.48997981E-05  2.72108167E-05  3.56685528E-06 -1.39441091E-06
  5.47978578E-06 -7.46766111E-04 -1.37204262E-05  4.84882535E-06 -2.00621489E-06
  5.25835770E-06 -2.19869838E-05  9.75677063E-05  1.40419192E-06 -1.22890704E-06
  6.27414073E-01  3.14674573E-02  2.86823568E-05 -4.32038711E-05  2.35623481E-06
 -9.79316698E-03  1.18219592E-04 -5.55379045E-04  3.58001215E-05 -5.82589886E-03
 -5.78385101E-03 -5.74667179E-03  3.46601500E-05  2.81092162E-06  2.04596657E-06
 -2.25687197E-03 -3.76245837E-04  2.87273586E-05  3.27860660E-05 -2.35751949E-07
  5.65690496E-03 -5.35983984E-04 -1.07819498E-03 -4.68398189E-06 -4.77981826E-04
 -3.09786263E-04 -1.81184611E-04 -2.07135513E-05 -2.18795699E-06  4.42316540E-07
 -4.70262712E-05  1.95378964E-03  2.69020474E-05  8.03080708E-05 -4.13279389E-06
 -1.59722117E-04  1.47210370E-03  1.91960205E-05 -6.24077319E-05 -1.25817797E-04
 -1.56206899E-04  1.43259518E-03  2.92983926E-05 -5.42980498E-05  1.32255952E-04
  7.69469361E-01  3.87181156E-02 -3.43612855E-06 -8.02095320E-05 -1.73690096E-06
 -1.27347134E-02 -4.89769948E-04 -7.11287346E-04 -1.15961388E-05 -7.11622341E-03
 -7.06989264E-03 -7.00003334E-03 -6.12187761E-05  1.88947362E-06 -5.30442178E-07
 -1.53469765E-04  1.86792476E-03 -9.04056235E-06 -7.14545848E-05 -1.59558379E-04
 -5.11440980E-05  2.26441817E-03 -5.10525524E-05  1.03511082E-04  2.24218760E-06
 -1.57270493E-04  1.89262685E-03 -2.59451954E-06 -7.55459907E-05  1.55124940E-04
 -2.41291807E-05 -1.42145832E-04 -2.85374808E-06  3.49823241E-05 -8.48692517E-07
  2.82299938E-05  7.65217516E-05 -1.27646938E-04  3.57040458E-06 -1.71087561E-05
  5.35328138E-05 -2.12672403E-04 -1.00335301E-05  1.06352438E-06 -3.53950952E-07
 -2.02053453E-02  3.75502944E-02 -2.06439529E-02  2.02904715E-02 -3.11054078E-06
  6.49260131E-03  9.40605662E-03  9.45564181E-03  7.82496350E-05  2.67822832E-03
  2.40265782E-03 -1.70601045E-03 -5.40646838E-03 -3.91760219E-06 -2.02545704E-05
 -1.20017384E-01  2.31975924E-01  5.94883562E-06  1.73453327E-01  2.36178232E-04
  8.77828924E-02  2.75753133E-06 -4.48163944E-02 -2.39994586E-05 -1.83660270E-02
  2.14818756E-02 -1.94189357E-02  1.52368753E-06  6.76940709E-06  5.18516694E-05
  9.36239849E-03 -1.79201775E-03 -1.79041255E-03 -8.61836527E-07  3.77875813E-05
  7.05524959E-03  1.52809274E-03  3.04122265E-05  1.46269559E-04  7.88472968E-04
  7.09751156E-03  1.30566677E-03 -3.76225786E-05  1.10673598E-04 -8.02838664E-04
 -2.02049543E-02  3.75455791E-02  2.06443609E-02  2.02885631E-02 -1.27558385E-05
  6.51131328E-03 -9.40986448E-03  9.45611493E-03 -5.85994887E-06  2.67777276E-03
  2.40309497E-03 -1.70695212E-03  5.40564273E-03 -4.18595057E-06  2.83995055E-06
  7.08631705E-03  1.34346170E-03  1.76066436E-05  1.18502253E-04  7.98254366E-04
  9.36322238E-03 -1.80252125E-03  1.79113678E-03 -7.91020339E-07 -1.86363620E-05
  7.06348062E-03  1.48101412E-03 -1.12096872E-05  1.36490995E-04 -7.93872688E-04
 -1.92818821E-01  4.17936442E-01 -2.45617662E-06 -1.58182419E-01 -1.62471224E-04
  4.07836766E-01 -2.39796011E-06 -5.94015149E-02 -7.26332286E-05 -1.17607694E-02
  9.89518587E-03 -7.02201112E-03  4.46523504E-07  1.24505893E-05  2.27651103E-05
 -1.24549933E-01  2.39993070E-01 -5.35134366E-02  5.62646000E-03  9.20748755E-05
  1.93375956E-01 -8.20346039E-03 -2.59768753E-03 -1.19577155E-05 -3.80268054E-05
 -7.38833765E-03 -6.44006613E-03 -2.86650045E-03  2.99047340E-05  5.01566740E-05
 -8.73391099E-02  1.74956184E-01 -3.51966219E-06 -1.85409511E-01  8.47044761E-05
  1.28041965E-01  9.98848275E-06 -4.76081222E-02  6.81459250E-05  1.31078169E-02
 -1.28159776E-02 -6.53806747E-03 -6.18245261E-08  1.87004893E-05 -3.77610153E-05
  6.46356553E-02  1.22714123E-02 -5.54015605E-03 -4.52045225E-03  2.74620862E-04
  7.98318205E-02  2.05143641E-02 -1.42644929E-03  4.94017434E-03  6.19137887E-03
  7.93303620E-02  2.03074256E-02 -1.66987964E-03  4.42652439E-03 -6.48053973E-03
 -1.24552925E-01  2.39995682E-01  5.35182905E-02  5.61969447E-03 -9.35240047E-05
  1.93398154E-01  8.20889940E-03 -2.59416085E-03 -4.56846867E-05 -3.88426113E-05
 -7.39093792E-03 -6.43766198E-03  2.86776311E-03  3.42642090E-06 -2.89012751E-05
  7.94602346E-02  2.03727470E-02  1.60849777E-03  4.57261124E-03  6.40352958E-03
  6.46249967E-02  1.22654533E-02  5.54136353E-03 -4.52508664E-03 -1.24293627E-04
  7.97147270E-02  2.04517028E-02  1.48644879E-03  4.79842870E-03 -6.27942052E-03
  6.80596458E-02 -1.55223999E-01  7.65421868E-07  2.63251193E-03  6.87824434E-05
 -1.55254224E-01 -3.23587387E-06 -8.44764568E-03 -2.09944269E-05  1.47498555E-03
  3.83674095E-03 -3.08383377E-04  6.48045443E-07 -7.79982411E-06  6.72144054E-07
 -1.41777169E-01  2.74632738E-01  6.76789912E-03  1.02678694E-02  2.40653347E-04
  2.63026237E-01 -2.67223453E-03  4.36616467E-03 -8.26581110E-05 -7.25462749E-03
 -5.44487478E-03 -5.83706480E-03 -9.43649186E-04 -2.00338361E-05 -3.46189481E-05
  5.08399394E-07 -5.40902067E-09  1.85234138E-01 -1.70219443E-06  8.48343285E-05
  4.43411176E-06  1.80818957E-02  1.77626863E-05  1.34046705E-04  8.20095767E-07
  1.97038104E-07  8.21864109E-08 -1.29082484E-02  3.26288232E-05 -5.44322088E-06
  1.00704042E-01  2.99817200E-02 -7.55571431E-03 -5.83109655E-03  3.98752581E-04
  9.54952855E-02  2.80658290E-02  4.68021834E-05  5.64698179E-03  7.18797108E-03
  9.62688584E-02  2.85822725E-02 -3.15801051E-04  5.12667355E-03 -7.59108112E-03
  1.41774637E-01 -2.74627758E-01  6.76120034E-03 -1.02554742E-02  1.39666549E-04
 -2.63012630E-01 -2.66240627E-03 -4.37513087E-03 -3.95411334E-05  7.25471648E-03
  5.44303912E-03  5.83885135E-03 -9.43095809E-04  7.93906487E-06 -9.19083894E-06
 -9.60638425E-02 -2.84289167E-02 -2.22681374E-04 -5.27699160E-03 -7.48134275E-03
 -1.00697403E-01 -2.99725447E-02 -7.55881193E-03  5.83772328E-03  1.83424908E-04
 -9.57029335E-02 -2.82257111E-02 -4.31641410E-05 -5.50240308E-03  7.30843224E-03
  2.71939782E-06 -1.67886428E-06  4.95900819E-02 -2.19261252E-06  1.77086342E-05
 -2.63467290E-05  2.28730949E-02  5.16054652E-06 -4.86922265E-05  1.40751688E-06
  1.34749857E-06  1.72609275E-06 -5.93859255E-03 -6.86509255E-06  5.94056765E-06
  5.13330815E-02 -1.01938072E-01 -2.06752946E-01  9.74851609E-02 -1.64257907E-04
 -1.27410669E-01 -5.80933144E-02  3.48982900E-02 -3.82838421E-04  1.32680658E-02
 -4.42727842E-05 -4.06502112E-03 -1.17283464E-02  6.29311744E-05  7.91931534E-05
 -1.36362688E-01  3.02260822E-01  2.96576078E-06 -9.32818373E-02  7.03055555E-05
  2.84538012E-01  1.66266606E-05 -7.52222121E-02  7.13662674E-05 -7.76695560E-03
 -1.34915596E-02 -9.70807101E-03  2.77553392E-07  2.62840200E-05 -1.30139391E-05
 -9.87773454E-02 -6.62950429E-02  2.40154229E-03  5.92325243E-03 -3.02283659E-04
 -8.19991654E-02 -5.05481996E-02 -3.21234077E-03 -1.88323644E-03 -4.66909035E-03
 -8.27594564E-02 -5.07088931E-02 -3.04081462E-03 -1.53329589E-03  4.95332214E-03